# OOMMF: rectangular mesh v1.0
# Segment count: 1
# Begin: Segment
# Begin: Header
# Desc: Time (s) :  0
# Title: m_zrange3_
# meshtype: rectangular
# meshunit: m
# xbase: 1e-09
# ybase: 1e-09
# zbase: 2.5e-09
# xstepsize: 2e-09
# ystepsize: 2e-09
# zstepsize: 5e-09
# xmin: 0
# ymin: 0
# zmin: 0
# xmax: 6.4e-07
# ymax: 6.4e-07
# zmax: 5e-09
# xnodes: 320
# ynodes: 320
# znodes: 1
# ValueRangeMinMag: 1e-08
# ValueRangeMaxMag: 1
# valueunit: 
# valuemultiplier: 1
# End: Header
# Begin: Data Text
0 -0 0 
0 -0 0 
0 -0 0 
0 -0 0 
0 -0 0 
0 -0 0 
0 -0 0 
0 -0 0 
0 -0 0 
0 -0 0 
0 -0 0 
0 -0 0 
0 -0 0 
0 -0 0 
0 -0 0 
0 -0 0 
0 -0 0 
0 -0 0 
0 -0 0 
0 -0 0 
0 -0 0 
0 -0 0 
0 -0 0 
0 -0 0 
0 -0 0 
0 -0 0 
0 -0 0 
0 -0 0 
0 -0 0 
0 -0 0 
0 -0 0 
0 -0 0 
0 -0 0 
0 -0 0 
0 -0 0 
0 -0 0 
0 -0 0 
0 -0 0 
0 -0 0 
0 -0 0 
0 -0 0 
0 -0 0 
0 -0 0 
0 -0 0 
0 -0 0 
0 -0 0 
0 -0 0 
0 -0 0 
0 -0 0 
0 -0 0 
0 -0 0 
0 -0 0 
0 -0 0 
0 -0 0 
0 -0 0 
0 -0 0 
0 -0 0 
0 -0 0 
0 -0 0 
0 -0 0 
0 -0 0 
0 -0 0 
0 -0 0 
0 -0 0 
0 -0 0 
0 -0 0 
0 -0 0 
0 -0 0 
0 -0 0 
0 -0 0 
0 -0 0 
0 -0 0 
0 -0 0 
0 -0 0 
0 -0 0 
0 -0 0 
0 -0 0 
0 -0 0 
0 -0 0 
0 -0 0 
0 0 0 
0 0 0 
0 0 0 
0 0 0 
0 -0 0 
0 -0 0 
0 -0 0 
0 -0 0 
0 -0 0 
0 -0 0 
0 -0 0 
0 -0 0 
0 -0 0 
0 -0 0 
0 -0 0 
0 -0 0 
0 -0 0 
0 -0 0 
0 -0 0 
0 -0 0 
0 -0 0 
0 -0 0 
0 -0 0 
0 -0 0 
0 -0 0 
0 -0 0 
0 -0 0 
0 -0 0 
0 -0 0 
0 -0 0 
0 -0 0 
0 -0 0 
0 -0 0 
0 -0 0 
0 -0 0 
0 -0 0 
0 -0 0 
0 -0 0 
0 -0 0 
0 0 0 
0 -0 0 
0 0 0 
0 -0 0 
0 -0 0 
0 -0 0 
0 -0 0 
0 0 0 
0 -0 0 
0 -0 0 
0 -0 0 
0 -0 0 
0 -0 0 
0 -0 0 
0 -0 0 
0 -0 0 
0 -0 0 
0 -0 0 
0 -0 0 
0 -0 0 
0 -0 0 
0 -0 0 
0 -0 0 
0 -0 0 
0 -0 0 
0 -0 0 
0 -0 0 
0 -0 0 
0.99708414 -0.07623301 -0.0034275525 
0.99747914 -0.07091954 -0.0024126284 
0.9979425 -0.064100884 -0.0013653007 
0.9983754 -0.056977227 -0.000508589 
0.99875075 -0.049970184 0.00011732291 
0.9990653 -0.043223627 0.0005289746 
0.9993234 -0.036772266 0.0007595866 
0.9995312 -0.030604448 0.0008448167 
0.99969494 -0.024687966 0.0008173131 
0.99981964 -0.018981406 0.00070519425 
0.9999096 -0.013439457 0.00053226127 
0.9999678 -0.008015342 0.00031865394 
0.9999965 -0.0026619178 8.1732935e-05 
0.9999965 0.0026679542 -0.00016279999 
0.99996775 0.008021382 -0.00039975758 
0.99990946 0.013445503 -0.0006134386 
0.9998195 0.018987464 -0.00078648265 
0.99969465 0.024694035 -0.0008987499 
0.99953103 0.030610545 -0.00092643953 
0.9993232 0.036778387 -0.0008414315 
0.999065 0.043229785 -0.0006110765 
0.9987504 0.049976382 -0.00019971456 
0.99837506 0.056983482 0.00042587894 
0.9979422 0.06410721 0.0012822488 
0.99747896 0.07092594 0.002329216 
0.9970839 0.07623947 0.0033437787 
0 0 0 
0 0 0 
0 0 0 
0 0 0 
0 0 0 
0 0 0 
0 0 0 
0 0 0 
0 0 0 
0 0 0 
0 0 0 
0 0 0 
0 0 0 
0 0 0 
0 0 0 
0 0 0 
0 0 0 
0 0 0 
0 0 0 
0 0 0 
0 0 0 
0 0 0 
0 0 0 
0 0 0 
0 0 0 
0 0 0 
0 0 0 
0 0 0 
0 0 0 
0 0 0 
0 0 0 
0 0 0 
0 0 0 
0 0 0 
0 0 0 
0 0 0 
0 0 0 
0 0 0 
0 0 0 
0 0 0 
0 0 0 
0 0 0 
0 0 0 
0 0 0 
0 0 0 
0 0 0 
0 0 0 
0 0 0 
0 0 0 
0 0 0 
0 0 0 
0 0 0 
0 0 0 
0 0 0 
0 0 0 
0 0 0 
0 0 0 
0 0 0 
0 0 0 
0 0 0 
0 0 0 
0 0 0 
0 0 0 
0 0 0 
0 0 0 
0 0 0 
0 0 0 
0 0 0 
0 0 0 
0 0 0 
0 0 0 
0 0 0 
0 0 0 
0 0 0 
0 0 0 
0 0 0 
0 0 0 
0 0 0 
0 0 0 
0 0 0 
0 0 0 
0 0 0 
0 0 0 
0 0 0 
0 0 0 
0 0 0 
0 0 0 
0 0 0 
0 0 0 
0 0 0 
0 0 0 
0 0 0 
0 0 0 
0 0 0 
0 0 0 
0 0 0 
0 0 0 
0 0 0 
0 0 0 
0 0 0 
0 0 0 
0 0 0 
0 0 0 
0 0 0 
0 0 0 
0 0 0 
0 0 0 
0 0 0 
0 0 0 
0 0 0 
0 0 0 
0 0 0 
0 0 0 
0 0 0 
0 0 0 
0 0 0 
0 0 0 
0 0 0 
0 0 0 
0 0 0 
0 0 0 
0 0 0 
0 0 0 
0 0 0 
0 0 0 
0 0 0 
0 0 0 
0 0 0 
0 0 0 
0 0 0 
0 0 0 
0 0 0 
0 0 0 
0 0 0 
0 0 0 
0 0 0 
0 0 0 
0 0 0 
0 0 0 
0 0 0 
0 0 0 
0 0 0 
0 0 0 
0 0 0 
0 0 0 
0 0 0 
0 0 0 
0 -0 0 
0 -0 0 
0 -0 0 
0 -0 0 
0 -0 0 
0 -0 0 
0 -0 0 
0 -0 0 
0 -0 0 
0 -0 0 
0 -0 0 
0 -0 0 
0 -0 0 
0 -0 0 
0 -0 0 
0 -0 0 
0 -0 0 
0 -0 0 
0 -0 0 
0 -0 0 
0 -0 0 
0 -0 0 
0 -0 0 
0 -0 0 
0 -0 0 
0 -0 0 
0 -0 0 
0 -0 0 
0 -0 0 
0 -0 0 
0 -0 0 
0 -0 0 
0 -0 0 
0 -0 0 
0 -0 0 
0 -0 0 
0 -0 0 
0 -0 0 
0 -0 0 
0 -0 0 
0 -0 0 
0 -0 0 
0 -0 0 
0 -0 0 
0 -0 0 
0 -0 0 
0 -0 0 
0 -0 0 
0 -0 0 
0 -0 0 
0 -0 0 
0 -0 0 
0 -0 0 
0 -0 0 
0 -0 0 
0 -0 0 
0 -0 0 
0 -0 0 
0 -0 0 
0 -0 0 
0 -0 0 
0 -0 0 
0 -0 0 
0 -0 0 
0 -0 0 
0 -0 0 
0 -0 0 
0 -0 0 
0 -0 0 
0 -0 0 
0 -0 0 
0 -0 0 
0 -0 0 
0 -0 0 
0 -0 0 
0 -0 0 
0 -0 0 
0 -0 0 
0 -0 0 
0 -0 0 
0 -0 0 
0 0 0 
0 0 0 
0 0 0 
0 -0 0 
0 -0 0 
0 -0 0 
0 -0 0 
0 -0 0 
0 -0 0 
0 -0 0 
0 -0 0 
0 -0 0 
0 -0 0 
0 -0 0 
0 -0 0 
0 -0 0 
0 -0 0 
0 -0 0 
0 -0 0 
0 -0 0 
0 -0 0 
0 -0 0 
0 -0 0 
0 -0 0 
0 -0 0 
0 -0 0 
0 -0 0 
0 -0 0 
0 -0 0 
0 -0 0 
0 -0 0 
0 -0 0 
0 -0 0 
0 -0 0 
0 -0 0 
0 -0 0 
0 -0 0 
0 -0 0 
0 -0 0 
0 0 0 
0 0 0 
0 -0 0 
0 -0 0 
0 -0 0 
0 -0 0 
0 -0 0 
0 0 0 
0 -0 0 
0 -0 0 
0 -0 0 
0 -0 0 
0 -0 0 
0 -0 0 
0 -0 0 
0 -0 0 
0 -0 0 
0 -0 0 
0.99184835 -0.12741283 -0.0016928762 
0.99251944 -0.12208529 -0.0007414077 
0.99328434 -0.11569935 0.000114116134 
0.99398696 -0.10949709 0.0006232111 
0.9945861 -0.10391404 0.0007284728 
0.99507743 -0.09910041 0.00043638967 
0.99547046 -0.09507092 -0.00021148246 
0.99578696 -0.091690466 -0.0011205616 
0.996091 -0.088308685 -0.0020714665 
0.99668473 -0.081319615 -0.0026157666 
0.9973005 -0.0733991 -0.0020825774 
0.99784666 -0.065578215 -0.0012882657 
0.9983151 -0.05802294 -0.0005592124 
0.9987094 -0.050789185 5.4873985e-06 
0.99903613 -0.043894626 0.0003927561 
0.99930286 -0.037328593 0.0006203014 
0.9995172 -0.031061964 0.00071511953 
0.9996858 -0.025055116 0.00070480275 
0.99981433 -0.019263165 0.000614455 
0.99990696 -0.013638915 0.00046602808 
0.9999669 -0.00813441 0.00027849837 
0.9999964 -0.00270165 6.845223e-05 
0.9999964 0.002707217 -0.0001489612 
0.99996686 0.008139979 -0.00035904263 
0.9999068 0.01364449 -0.00054664334 
0.99981415 0.019268751 -0.0006951772 
0.9996857 0.025060719 -0.00078566733 
0.999517 0.031067587 -0.000796161 
0.9993027 0.037334245 -0.0007015522 
0.9990359 0.04390031 -0.00047424546 
0.99870914 0.050794914 -8.723853e-05 
0.99831486 0.05802872 0.00047718937 
0.99784636 0.06558406 0.0012059885 
0.99730027 0.073405005 0.0020001314 
0.9966844 0.08132554 0.0025334267 
0.9960907 0.08831447 0.0019899975 
0.99578655 0.09169626 0.0010393527 
0.99547 0.095076784 0.00013019978 
0.9950767 0.099106334 -0.00051793194 
0.99458534 0.10392005 -0.0008103896 
0.99398625 0.10950321 -0.0007055755 
0.99328357 0.115705565 -0.00019697126 
0.99251866 0.12209161 0.000658046 
0.9918477 0.12741928 0.0016090438 
0 0 0 
0 0 0 
0 0 0 
0 0 0 
0 0 0 
0 0 0 
0 0 0 
0 0 0 
0 0 0 
0 0 0 
0 0 0 
0 0 0 
0 0 0 
0 0 0 
0 0 0 
0 0 0 
0 0 0 
0 0 0 
0 0 0 
0 0 0 
0 0 0 
0 0 0 
0 0 0 
0 0 0 
0 0 0 
0 0 0 
0 0 0 
0 0 0 
0 0 0 
0 0 0 
0 0 0 
0 0 0 
0 0 0 
0 0 0 
0 0 0 
0 0 0 
0 0 0 
0 0 0 
0 0 0 
0 0 0 
0 0 0 
0 0 0 
0 0 0 
0 0 0 
0 0 0 
0 0 0 
0 0 0 
0 0 0 
0 0 0 
0 0 0 
0 0 0 
0 0 0 
0 0 0 
0 0 0 
0 0 0 
0 0 0 
0 0 0 
0 0 0 
0 0 0 
0 0 0 
0 0 0 
0 0 0 
0 0 0 
0 0 0 
0 0 0 
0 0 0 
0 0 0 
0 0 0 
0 0 0 
0 0 0 
0 0 0 
0 0 0 
0 0 0 
0 0 0 
0 0 0 
0 0 0 
0 0 0 
0 0 0 
0 0 0 
0 0 0 
0 0 0 
0 0 0 
0 0 0 
0 0 0 
0 0 0 
0 0 0 
0 0 0 
0 0 0 
0 0 0 
0 0 0 
0 0 0 
0 0 0 
0 0 0 
0 0 0 
0 0 0 
0 0 0 
0 0 0 
0 0 0 
0 0 0 
0 0 0 
0 0 0 
0 0 0 
0 0 0 
0 0 0 
0 0 0 
0 0 0 
0 0 0 
0 0 0 
0 0 0 
0 0 0 
0 0 0 
0 0 0 
0 0 0 
0 0 0 
0 0 0 
0 0 0 
0 0 0 
0 0 0 
0 0 0 
0 0 0 
0 0 0 
0 0 0 
0 0 0 
0 0 0 
0 0 0 
0 0 0 
0 0 0 
0 0 0 
0 0 0 
0 0 0 
0 0 0 
0 0 0 
0 0 0 
0 0 0 
0 0 0 
0 0 0 
0 0 0 
0 0 0 
0 -0 0 
0 -0 0 
0 -0 0 
0 -0 0 
0 -0 0 
0 -0 0 
0 -0 0 
0 -0 0 
0 -0 0 
0 -0 0 
0 -0 0 
0 -0 0 
0 -0 0 
0 -0 0 
0 -0 0 
0 -0 0 
0 -0 0 
0 -0 0 
0 -0 0 
0 -0 0 
0 -0 0 
0 -0 0 
0 -0 0 
0 -0 0 
0 -0 0 
0 -0 0 
0 -0 0 
0 -0 0 
0 -0 0 
0 -0 0 
0 -0 0 
0 -0 0 
0 -0 0 
0 -0 0 
0 -0 0 
0 -0 0 
0 -0 0 
0 -0 0 
0 -0 0 
0 -0 0 
0 -0 0 
0 -0 0 
0 -0 0 
0 -0 0 
0 -0 0 
0 -0 0 
0 -0 0 
0 -0 0 
0 -0 0 
0 -0 0 
0 -0 0 
0 -0 0 
0 -0 0 
0 -0 0 
0 -0 0 
0 -0 0 
0 -0 0 
0 -0 0 
0 -0 0 
0 -0 0 
0 -0 0 
0 -0 0 
0 -0 0 
0 -0 0 
0 -0 0 
0 -0 0 
0 -0 0 
0 -0 0 
0 -0 0 
0 -0 0 
0 -0 0 
0 -0 0 
0 -0 0 
0 -0 0 
0 -0 0 
0 -0 0 
0 -0 0 
0 -0 0 
0 -0 0 
0 -0 0 
0 -0 0 
0 0 0 
0 0 0 
0 0 0 
0 0 0 
0 -0 0 
0 -0 0 
0 -0 0 
0 -0 0 
0 -0 0 
0 -0 0 
0 -0 0 
0 -0 0 
0 -0 0 
0 -0 0 
0 -0 0 
0 -0 0 
0 -0 0 
0 -0 0 
0 -0 0 
0 -0 0 
0 -0 0 
0 -0 0 
0 -0 0 
0 -0 0 
0 -0 0 
0 -0 0 
0 -0 0 
0 -0 0 
0 -0 0 
0 -0 0 
0 -0 0 
0 -0 0 
0 -0 0 
0 -0 0 
0 -0 0 
0 -0 0 
0 -0 0 
0 -0 0 
0 -0 0 
0 0 0 
0 -0 0 
0 0 0 
0 -0 0 
0 -0 0 
0 -0 0 
0 -0 0 
0 -0 0 
0 -0 0 
0 -0 0 
0 -0 0 
0 -0 0 
0.98655075 -0.16344982 -0.001381909 
0.9873775 -0.15838377 -0.0006207906 
0.98827785 -0.1526659 -0.00010012957 
0.98906356 -0.14749005 -3.0144032e-05 
0.9896973 -0.14317578 -0.00038395362 
0.9902455 -0.13933024 -0.0009429447 
0.9911771 -0.13253902 -0.001203482 
0.99216616 -0.12492365 -0.0006592009 
0.9930513 -0.1176825 -2.5171492e-05 
0.99380803 -0.11110983 0.00038826413 
0.9944392 -0.10531125 0.0004814485 
0.99495655 -0.100307554 0.00024565277 
0.9953792 -0.096022315 -0.00027242926 
0.9957417 -0.09218258 -0.00096025114 
0.996117 -0.08802469 -0.0016016951 
0.99662894 -0.0820193 -0.0018867394 
0.99720997 -0.07463034 -0.0016226901 
0.99776185 -0.06685945 -0.0010997168 
0.9982455 -0.05920951 -0.00055165257 
0.99865484 -0.05185165 -9.103568e-05 
0.9989947 -0.044829503 0.000244569 
0.9992725 -0.03813652 0.0004544342 
0.9994959 -0.031743806 0.00055314123 
0.9996718 -0.025611676 0.00056023686 
0.9998059 -0.019695176 0.00049576635 
0.9999027 -0.013947044 0.00037842078 
0.9999654 -0.0083191795 0.00022505055 
0.99999624 -0.0027634264 5.0733495e-05 
0.99999624 0.0027683063 -0.00013046112 
0.9999653 0.0083240615 -0.00030481105 
0.99990255 0.013951931 -0.0004582473 
0.9998058 0.019700075 -0.000575692 
0.9996717 0.02561659 -0.00064029364 
0.99949574 0.03174874 -0.00063335896 
0.9992723 0.038141478 -0.0005348393 
0.9989944 0.04483449 -0.00032518228 
0.99865454 0.05185668 1.0203091e-05 
0.9982452 0.059214596 0.0004706086 
0.9977616 0.0668646 0.0010185043 
0.99720967 0.07463555 0.001541412 
0.99662876 0.082024574 0.0018055866 
0.99611676 0.088029966 0.0015208863 
0.99574125 0.09218788 0.00087958924 
0.99537873 0.0960277 0.00019169302 
0.9949559 0.10031301 -0.00032662242 
0.99443865 0.10531681 -0.0005627547 
0.99380744 0.111115485 -0.00046996342 
0.99305063 0.11768825 -5.692875e-05 
0.9921655 0.1249295 0.0005767722 
0.99117637 0.13254495 0.0011209851 
0.99024487 0.13933606 0.00086105434 
0.9896964 0.14318164 0.00030205902 
0.9890627 0.14749604 -5.20647e-05 
0.988277 0.15267201 1.7455635e-05 
0.9873766 0.15839002 0.0005375868 
0.9865498 0.16345617 0.0012982005 
0 0 0 
0 0 0 
0 0 0 
0 0 0 
0 0 0 
0 0 0 
0 0 0 
0 0 0 
0 0 0 
0 0 0 
0 0 0 
0 0 0 
0 0 0 
0 0 0 
0 0 0 
0 0 0 
0 0 0 
0 0 0 
0 0 0 
0 0 0 
0 0 0 
0 0 0 
0 0 0 
0 0 0 
0 0 0 
0 0 0 
0 0 0 
0 0 0 
0 0 0 
0 0 0 
0 0 0 
0 0 0 
0 0 0 
0 0 0 
0 0 0 
0 0 0 
0 0 0 
0 0 0 
0 0 0 
0 0 0 
0 0 0 
0 0 0 
0 0 0 
0 0 0 
0 0 0 
0 0 0 
0 0 0 
0 0 0 
0 0 0 
0 0 0 
0 0 0 
0 0 0 
0 0 0 
0 0 0 
0 0 0 
0 0 0 
0 0 0 
0 0 0 
0 0 0 
0 0 0 
0 0 0 
0 0 0 
0 0 0 
0 0 0 
0 0 0 
0 0 0 
0 0 0 
0 0 0 
0 0 0 
0 0 0 
0 0 0 
0 0 0 
0 0 0 
0 0 0 
0 0 0 
0 0 0 
0 0 0 
0 0 0 
0 0 0 
0 0 0 
0 0 0 
0 0 0 
0 0 0 
0 0 0 
0 0 0 
0 0 0 
0 0 0 
0 0 0 
0 0 0 
0 0 0 
0 0 0 
0 0 0 
0 0 0 
0 0 0 
0 0 0 
0 0 0 
0 0 0 
0 0 0 
0 0 0 
0 0 0 
0 0 0 
0 0 0 
0 0 0 
0 0 0 
0 0 0 
0 0 0 
0 0 0 
0 0 0 
0 0 0 
0 0 0 
0 0 0 
0 0 0 
0 0 0 
0 0 0 
0 0 0 
0 0 0 
0 0 0 
0 0 0 
0 0 0 
0 0 0 
0 0 0 
0 0 0 
0 0 0 
0 0 0 
0 0 0 
0 0 0 
0 0 0 
0 0 0 
0 0 0 
0 0 0 
0 0 0 
0 0 0 
0 -0 0 
0 -0 0 
0 -0 0 
0 -0 0 
0 -0 0 
0 -0 0 
0 -0 0 
0 -0 0 
0 -0 0 
0 -0 0 
0 -0 0 
0 -0 0 
0 -0 0 
0 -0 0 
0 -0 0 
0 -0 0 
0 -0 0 
0 -0 0 
0 -0 0 
0 -0 0 
0 -0 0 
0 -0 0 
0 -0 0 
0 -0 0 
0 -0 0 
0 -0 0 
0 -0 0 
0 -0 0 
0 -0 0 
0 -0 0 
0 -0 0 
0 -0 0 
0 -0 0 
0 -0 0 
0 -0 0 
0 -0 0 
0 -0 0 
0 -0 0 
0 -0 0 
0 -0 0 
0 -0 0 
0 -0 0 
0 -0 0 
0 -0 0 
0 -0 0 
0 -0 0 
0 -0 0 
0 -0 0 
0 -0 0 
0 -0 0 
0 -0 0 
0 -0 0 
0 -0 0 
0 -0 0 
0 -0 0 
0 -0 0 
0 -0 0 
0 -0 0 
0 -0 0 
0 -0 0 
0 -0 0 
0 -0 0 
0 -0 0 
0 -0 0 
0 -0 0 
0 -0 0 
0 -0 0 
0 -0 0 
0 -0 0 
0 -0 0 
0 -0 0 
0 -0 0 
0 -0 0 
0 -0 0 
0 -0 0 
0 -0 0 
0 -0 0 
0 -0 0 
0 -0 0 
0 -0 0 
0 -0 0 
0 -0 0 
0 0 0 
0 0 0 
0 0 0 
0 -0 0 
0 0 0 
0 -0 0 
0 -0 0 
0 -0 0 
0 -0 0 
0 -0 0 
0 -0 0 
0 -0 0 
0 -0 0 
0 -0 0 
0 -0 0 
0 -0 0 
0 -0 0 
0 -0 0 
0 -0 0 
0 -0 0 
0 -0 0 
0 -0 0 
0 -0 0 
0 -0 0 
0 -0 0 
0 -0 0 
0 -0 0 
0 -0 0 
0 -0 0 
0 -0 0 
0 -0 0 
0 -0 0 
0 -0 0 
0 -0 0 
0 -0 0 
0 -0 0 
0 -0 0 
0 -0 0 
0 -0 0 
0 -0 0 
0 0 0 
0 -0 0 
0 -0 0 
0 -0 0 
0 -0 0 
0.9812863 -0.19255316 -0.00070152443 
0.98222893 -0.18768676 -0.0001089432 
0.9832072 -0.18249285 0.00015093353 
0.9840135 -0.17809416 -6.520099e-05 
0.98466927 -0.17443076 -0.00059226 
0.98573154 -0.16832244 -0.00093246985 
0.9868996 -0.16133463 -0.0005799379 
0.9879341 -0.15487452 -0.00023505886 
0.9887951 -0.14927961 -0.00016627532 
0.9895082 -0.14447662 -0.00037656346 
0.99017394 -0.13984011 -0.000682948 
0.9909977 -0.13387682 -0.00077626336 
0.99192274 -0.12684284 -0.00049428333 
0.9928071 -0.11972486 -0.00010284269 
0.9935859 -0.113080494 0.00017749082 
0.9942472 -0.10710959 0.00024272162 
0.99480176 -0.101830564 7.2128794e-05 
0.9952727 -0.09711971 -0.00029405425 
0.9956976 -0.092659615 -0.0007573393 
0.99613255 -0.08785538 -0.0011611423 
0.99663246 -0.08198869 -0.0013331906 
0.99717593 -0.075091965 -0.0012004079 
0.9977069 -0.06767835 -0.00087411114 
0.998187 -0.060188163 -0.0004909856 
0.998602 -0.05285932 -0.00014195406 
0.998951 -0.04579155 0.00012919534 
0.9992388 -0.03901086 0.00030971313 
0.9994715 -0.032506105 0.00040352426 
0.9996554 -0.02624754 0.0004221605 
0.999796 -0.020195995 0.0003800089 
0.99989766 -0.014307696 0.00029184928 
0.9999636 -0.008536717 0.00017181523 
0.99999607 -0.0028363434 3.3041204e-05 
0.99999595 0.0028404696 -0.00011191825 
0.9999636 0.008540846 -0.0002507218 
0.99989754 0.01431183 -0.00037081508 
0.9997959 0.020200139 -0.0004590634 
0.99965525 0.026251696 -0.0005013311 
0.9994713 0.03251028 -0.00048283584 
0.99923855 0.03901506 -0.00038918536 
0.99895084 0.04579578 -0.00020884126 
0.99860173 0.052863587 6.213283e-05 
0.99818677 0.060192477 0.00041100613 
0.9977066 0.06768271 0.0007940186 
0.9971757 0.075096406 0.0011202815 
0.99663216 0.08199319 0.001253133 
0.99613225 0.087859936 0.0010812196 
0.9956972 0.092664234 0.0006774674 
0.9952722 0.097124405 0.00021409878 
0.9948013 0.10183535 -0.00015228537 
0.9942467 0.107114464 -0.00032316046 
0.9935853 0.113085456 -0.00025825002 
0.9928065 0.11972993 2.1775832e-05 
0.99192214 0.12684801 0.00041299078 
0.9909971 0.13388208 0.0006949137 
0.99017316 0.13984542 0.00060172385 
0.9895074 0.144482 0.00029526275 
0.9887942 0.14928511 8.4702086e-05 
0.98793334 0.15488018 0.00015311282 
0.9868987 0.1613404 0.00049763726 
0.9857307 0.1683283 0.0008500365 
0.98466825 0.17443652 0.0005102977 
0.98401237 0.17810002 -1.6905566e-05 
0.9832061 0.18249887 -0.00023347617 
0.98222774 0.18769293 2.5846051e-05 
0.98128515 0.19255945 0.0006178877 
0 0 0 
0 0 0 
0 0 0 
0 0 0 
0 0 0 
0 0 0 
0 0 0 
0 0 0 
0 0 0 
0 0 0 
0 0 0 
0 0 0 
0 0 0 
0 0 0 
0 0 0 
0 0 0 
0 0 0 
0 0 0 
0 0 0 
0 0 0 
0 0 0 
0 0 0 
0 0 0 
0 0 0 
0 0 0 
0 0 0 
0 0 0 
0 0 0 
0 0 0 
0 0 0 
0 0 0 
0 0 0 
0 0 0 
0 0 0 
0 0 0 
0 0 0 
0 0 0 
0 0 0 
0 0 0 
0 0 0 
0 0 0 
0 0 0 
0 0 0 
0 0 0 
0 0 0 
0 0 0 
0 0 0 
0 0 0 
0 0 0 
0 0 0 
0 0 0 
0 0 0 
0 0 0 
0 0 0 
0 0 0 
0 0 0 
0 0 0 
0 0 0 
0 0 0 
0 0 0 
0 0 0 
0 0 0 
0 0 0 
0 0 0 
0 0 0 
0 0 0 
0 0 0 
0 0 0 
0 0 0 
0 0 0 
0 0 0 
0 0 0 
0 0 0 
0 0 0 
0 0 0 
0 0 0 
0 0 0 
0 0 0 
0 0 0 
0 0 0 
0 0 0 
0 0 0 
0 0 0 
0 0 0 
0 0 0 
0 0 0 
0 0 0 
0 0 0 
0 0 0 
0 0 0 
0 0 0 
0 0 0 
0 0 0 
0 0 0 
0 0 0 
0 0 0 
0 0 0 
0 0 0 
0 0 0 
0 0 0 
0 0 0 
0 0 0 
0 0 0 
0 0 0 
0 0 0 
0 0 0 
0 0 0 
0 0 0 
0 0 0 
0 0 0 
0 0 0 
0 0 0 
0 0 0 
0 0 0 
0 0 0 
0 0 0 
0 0 0 
0 0 0 
0 0 0 
0 0 0 
0 0 0 
0 0 0 
0 0 0 
0 0 0 
0 0 0 
0 0 0 
0 0 0 
0 -0 0 
0 -0 0 
0 -0 0 
0 -0 0 
0 -0 0 
0 -0 0 
0 -0 0 
0 -0 0 
0 -0 0 
0 -0 0 
0 -0 0 
0 -0 0 
0 -0 0 
0 -0 0 
0 -0 0 
0 -0 0 
0 -0 0 
0 -0 0 
0 -0 0 
0 -0 0 
0 -0 0 
0 -0 0 
0 -0 0 
0 -0 0 
0 -0 0 
0 -0 0 
0 -0 0 
0 -0 0 
0 -0 0 
0 -0 0 
0 -0 0 
0 -0 0 
0 -0 0 
0 -0 0 
0 -0 0 
0 -0 0 
0 -0 0 
0 -0 0 
0 -0 0 
0 -0 0 
0 -0 0 
0 -0 0 
0 -0 0 
0 -0 0 
0 -0 0 
0 -0 0 
0 -0 0 
0 -0 0 
0 -0 0 
0 -0 0 
0 -0 0 
0 -0 0 
0 -0 0 
0 -0 0 
0 -0 0 
0 -0 0 
0 -0 0 
0 -0 0 
0 -0 0 
0 -0 0 
0 -0 0 
0 -0 0 
0 -0 0 
0 -0 0 
0 -0 0 
0 -0 0 
0 -0 0 
0 -0 0 
0 -0 0 
0 -0 0 
0 -0 0 
0 -0 0 
0 -0 0 
0 -0 0 
0 -0 0 
0 -0 0 
0 -0 0 
0 -0 0 
0 -0 0 
0 -0 0 
0 -0 0 
0 -0 0 
0 -0 0 
0 0 0 
0 0 0 
0 0 0 
0 0 0 
0 -0 0 
0 -0 0 
0 -0 0 
0 -0 0 
0 -0 0 
0 -0 0 
0 -0 0 
0 -0 0 
0 -0 0 
0 -0 0 
0 -0 0 
0 -0 0 
0 -0 0 
0 -0 0 
0 -0 0 
0 -0 0 
0 -0 0 
0 -0 0 
0 -0 0 
0 -0 0 
0 -0 0 
0 -0 0 
0 -0 0 
0 -0 0 
0 -0 0 
0 -0 0 
0 -0 0 
0 -0 0 
0 -0 0 
0 -0 0 
0 -0 0 
0 -0 0 
0 -0 0 
0 -0 0 
0 -0 0 
0.974977 -0.22230579 -0.00016130523 
0.9761927 -0.21690458 0.0005577233 
0.97743845 -0.21121871 0.0009215035 
0.9784406 -0.20652726 0.0007423254 
0.9792035 -0.20288026 0.00017334583 
0.98035544 -0.19723888 -0.00027968446 
0.981645 -0.19071779 -0.00010148587 
0.9827695 -0.18483546 2.6512149e-05 
0.9836886 -0.17987971 -0.0001081866 
0.9845004 -0.17538221 -0.00040351215 
0.9854612 -0.16989988 -0.0005724675 
0.9865438 -0.1634969 -0.00044840935 
0.98757863 -0.15712531 -0.00027508926 
0.98849034 -0.15128373 -0.00022741123 
0.9892915 -0.14595343 -0.000325519 
0.9900548 -0.14068176 -0.000465033 
0.9908756 -0.13477881 -0.00049202837 
0.991748 -0.12820236 -0.00034307534 
0.99260014 -0.12142929 -0.00012169383 
0.9933771 -0.11490023 4.5772304e-05 
0.9940589 -0.108843304 8.124844e-05 
0.9946501 -0.10330142 -3.6634705e-05 
0.9951705 -0.098161675 -0.0002796822 
0.9956515 -0.09315454 -0.0005767386 
0.99613124 -0.08787524 -0.0008273122 
0.9966368 -0.08194042 -0.00093627715 
0.9971605 -0.075301215 -0.00086728047 
0.9976714 -0.06820001 -0.0006660257 
0.9981418 -0.060932685 -0.00040774918 
0.9985564 -0.053715494 -0.00015547981 
0.99891037 -0.04666989 5.250329e-05 
0.9992057 -0.039848465 0.00019919011 
0.99944675 -0.03326081 0.00028180203 
0.9996383 -0.02689158 0.00030563812 
0.9997855 -0.0207113 0.00028005167 
0.9998922 -0.014682714 0.00021600333 
0.9999616 -0.00876439 0.00012477576 
0.9999958 -0.002912878 1.7367076e-05 
0.99999577 0.0029162674 -9.541482e-05 
0.9999616 0.008767781 -0.00020284906 
0.9998921 0.01468611 -0.00029412817 
0.9997854 0.020714704 -0.00035825325 
0.9996382 0.026894994 -0.00038393933 
0.99944663 0.033264242 -0.00036022227 
0.9992056 0.03985192 -0.00027774353 
0.9989103 0.046673372 -0.00013119678 
0.99855614 0.053719006 7.6649565e-05 
0.99814165 0.060936246 0.0003288009 
0.99767125 0.06820362 0.0005869962 
0.99716026 0.07530489 0.0007882218 
0.9966366 0.08194417 0.0008572408 
0.9961309 0.08787904 0.0007483166 
0.99565125 0.093158424 0.0004977368 
0.9951701 0.098165624 0.00020059136 
0.9946497 0.10330546 -4.2626143e-05 
0.99405855 0.10884744 -0.00016073775 
0.99337655 0.11490443 -0.00012551503 
0.9925996 0.121433586 4.1712443e-05 
0.99174744 0.12820677 0.00026291213 
0.990875 0.13478331 0.0004117674 
0.9900542 0.14068636 0.00038472502 
0.9892908 0.14595813 0.00024508339 
0.9884896 0.15128855 0.00014674425 
0.98757786 0.15713027 0.0001941385 
0.98654294 0.16350196 0.00036720774 
0.9854604 0.16990508 0.0004911449 
0.9844994 0.17538747 0.0003222136 
0.9836877 0.17988513 2.6702814e-05 
0.9827684 0.184841 -0.00010835153 
0.98164386 0.19072348 1.9259454e-05 
0.9803543 0.19724467 0.00019725542 
0.97920233 0.20288602 -0.00025544345 
0.97843933 0.20653315 -0.00082470954 
0.9774371 0.21122475 -0.0010044541 
0.9761913 0.21691075 -0.00064133824 
0.9749756 0.2223121 7.70776e-05 
0 0 0 
0 0 0 
0 0 0 
0 0 0 
0 0 0 
0 0 0 
0 0 0 
0 0 0 
0 0 0 
0 0 0 
0 0 0 
0 0 0 
0 0 0 
0 0 0 
0 0 0 
0 0 0 
0 0 0 
0 0 0 
0 0 0 
0 0 0 
0 0 0 
0 0 0 
0 0 0 
0 0 0 
0 0 0 
0 0 0 
0 0 0 
0 0 0 
0 0 0 
0 0 0 
0 0 0 
0 0 0 
0 0 0 
0 0 0 
0 0 0 
0 0 0 
0 0 0 
0 0 0 
0 0 0 
0 0 0 
0 0 0 
0 0 0 
0 0 0 
0 0 0 
0 0 0 
0 0 0 
0 0 0 
0 0 0 
0 0 0 
0 0 0 
0 0 0 
0 0 0 
0 0 0 
0 0 0 
0 0 0 
0 0 0 
0 0 0 
0 0 0 
0 0 0 
0 0 0 
0 0 0 
0 0 0 
0 0 0 
0 0 0 
0 0 0 
0 0 0 
0 0 0 
0 0 0 
0 0 0 
0 0 0 
0 0 0 
0 0 0 
0 0 0 
0 0 0 
0 0 0 
0 0 0 
0 0 0 
0 0 0 
0 0 0 
0 0 0 
0 0 0 
0 0 0 
0 0 0 
0 0 0 
0 0 0 
0 0 0 
0 0 0 
0 0 0 
0 0 0 
0 0 0 
0 0 0 
0 0 0 
0 0 0 
0 0 0 
0 0 0 
0 0 0 
0 0 0 
0 0 0 
0 0 0 
0 0 0 
0 0 0 
0 0 0 
0 0 0 
0 0 0 
0 0 0 
0 0 0 
0 0 0 
0 0 0 
0 0 0 
0 0 0 
0 0 0 
0 0 0 
0 0 0 
0 0 0 
0 0 0 
0 0 0 
0 0 0 
0 0 0 
0 0 0 
0 0 0 
0 0 0 
0 0 0 
0 -0 0 
0 -0 0 
0 -0 0 
0 -0 0 
0 -0 0 
0 -0 0 
0 -0 0 
0 -0 0 
0 -0 0 
0 -0 0 
0 -0 0 
0 -0 0 
0 -0 0 
0 -0 0 
0 -0 0 
0 -0 0 
0 -0 0 
0 -0 0 
0 -0 0 
0 -0 0 
0 -0 0 
0 -0 0 
0 -0 0 
0 -0 0 
0 -0 0 
0 -0 0 
0 -0 0 
0 -0 0 
0 -0 0 
0 -0 0 
0 -0 0 
0 -0 0 
0 -0 0 
0 -0 0 
0 -0 0 
0 -0 0 
0 -0 0 
0 -0 0 
0 -0 0 
0 -0 0 
0 -0 0 
0 -0 0 
0 -0 0 
0 -0 0 
0 -0 0 
0 -0 0 
0 -0 0 
0 -0 0 
0 -0 0 
0 -0 0 
0 -0 0 
0 -0 0 
0 -0 0 
0 -0 0 
0 -0 0 
0 -0 0 
0 -0 0 
0 -0 0 
0 -0 0 
0 -0 0 
0 -0 0 
0 -0 0 
0 -0 0 
0 -0 0 
0 -0 0 
0 -0 0 
0 -0 0 
0 -0 0 
0 -0 0 
0 -0 0 
0 -0 0 
0 -0 0 
0 -0 0 
0 -0 0 
0 -0 0 
0 -0 0 
0 -0 0 
0 -0 0 
0 -0 0 
0 -0 0 
0 -0 0 
0 -0 0 
0 -0 0 
0 0 0 
0 0 0 
0 0 0 
0 0 0 
0 -0 0 
0 -0 0 
0 -0 0 
0 -0 0 
0 -0 0 
0 -0 0 
0 -0 0 
0 -0 0 
0 -0 0 
0 -0 0 
0 -0 0 
0 -0 0 
0 -0 0 
0 -0 0 
0 -0 0 
0 -0 0 
0 -0 0 
0 -0 0 
0 -0 0 
0 -0 0 
0 -0 0 
0 -0 0 
0 -0 0 
0 -0 0 
0 -0 0 
0 -0 0 
0 -0 0 
0 -0 0 
0 -0 0 
0 -0 0 
0 -0 0 
0.9682207 -0.2500945 -0.0011600994 
0.96961874 -0.24462092 -0.0004233046 
0.97102225 -0.2389892 -4.502805e-05 
0.9721918 -0.23418623 -8.146525e-05 
0.97376966 -0.22753614 -4.6421497e-05 
0.97542334 -0.22033884 0.00038383823 
0.9768449 -0.21394816 0.0006527901 
0.97797835 -0.20870599 0.00057262724 
0.9789273 -0.20420887 0.0002537349 
0.97999287 -0.19903283 -5.1562865e-06 
0.9811845 -0.19307274 -1.9071846e-05 
0.98231924 -0.1872139 -4.4248804e-06 
0.98332673 -0.18184778 -9.207866e-05 
0.98426116 -0.17672014 -0.00024625947 
0.98523754 -0.17119247 -0.00034031834 
0.98626834 -0.16515042 -0.00031014267 
0.98727936 -0.15899551 -0.00023915443 
0.98821664 -0.1530614 -0.00021480364 
0.9890798 -0.147381 -0.00025520133 
0.9899078 -0.14171301 -0.00031136104 
0.9907456 -0.13573204 -0.00031247086 
0.9915956 -0.12937595 -0.00023150211 
0.9924238 -0.122862436 -0.00011208301 
0.9931947 -0.11646565 -2.1287316e-05 
0.99389106 -0.11036588 -8.520274e-06 
0.99451333 -0.10460987 -8.974289e-05 
0.99507606 -0.099114984 -0.00024698058 
0.9956018 -0.093685225 -0.00043394897 
0.9961152 -0.08805768 -0.00058930676 
0.9966315 -0.082007416 -0.0006589624 
0.99714726 -0.075478815 -0.0006215412 
0.9976451 -0.06858607 -0.00049657846 
0.9981063 -0.06151235 -0.00032501866 
0.99851805 -0.054423306 -0.00014755235 
0.9988744 -0.04743297 6.4643173e-06 
0.9991753 -0.040604297 0.00012071494 
0.9994232 -0.0339614 0.00018937691 
0.9996218 -0.027502015 0.00021374148 
0.9997751 -0.021207083 0.00019932294 
0.9998869 -0.015047255 0.00015382588 
0.99995965 -0.008987129 8.5867905e-05 
0.9999955 -0.0029879722 4.3653577e-06 
0.9999955 0.002990685 -8.166346e-05 
0.99995965 0.008989843 -0.00016318783 
0.9998868 0.0150499735 -0.00023118938 
0.9997751 0.02120981 -0.0002767508 
0.9996216 0.027504748 -0.00029125198 
0.99942297 0.033964146 -0.00026698498 
0.99917525 0.040607065 -0.00019843019 
0.99887437 0.047435764 -8.4289626e-05 
0.9985178 0.054426126 6.962214e-05 
0.9981061 0.061515212 0.00024699976 
0.99764496 0.06858899 0.0004184977 
0.9971471 0.07548178 0.0005434301 
0.9966313 0.08201045 0.0005808461 
0.996115 0.08806078 0.0005111877 
0.9956016 0.09368839 0.00035579616 
0.9950757 0.0991182 0.00016874116 
0.994513 0.10461317 1.1362333e-05 
0.9938907 0.110369265 -7.004189e-05 
0.99319434 0.11646912 -5.7473608e-05 
0.99242336 0.12286599 3.3132317e-05 
0.9915952 0.1293796 0.00015239336 
0.99074507 0.13573578 0.00023324208 
0.98990726 0.14171687 0.00023202527 
0.9890792 0.14738494 0.00017572078 
0.98821604 0.15306547 0.00013512584 
0.9872787 0.15899971 0.00015925316 
0.9862676 0.16515474 0.00023003721 
0.98523676 0.17119691 0.0002600619 
0.9842603 0.17672473 0.00016587989 
0.98332584 0.18185249 1.1491994e-05 
0.9823182 0.18721874 -7.644961e-05 
0.9811835 0.19307776 -6.2093466e-05 
0.9799918 0.19903797 -7.620508e-05 
0.97892624 0.20421411 -0.00033518442 
0.9779771 0.20871136 -0.0006543875 
0.97684354 0.21395369 -0.00073502905 
0.9754221 0.22034457 -0.00046657684 
0.9737683 0.227542 -3.6621426e-05 
0.9721904 0.23419207 -1.3677607e-06 
0.97102076 0.23899518 -3.8196333e-05 
0.9696172 0.24462706 0.00033945794 
0.9682193 0.2501008 0.001075641 
0 0 0 
0 0 0 
0 0 0 
0 0 0 
0 0 0 
0 0 0 
0 0 0 
0 0 0 
0 0 0 
0 0 0 
0 0 0 
0 0 0 
0 0 0 
0 0 0 
0 0 0 
0 0 0 
0 0 0 
0 0 0 
0 0 0 
0 0 0 
0 0 0 
0 0 0 
0 0 0 
0 0 0 
0 0 0 
0 0 0 
0 0 0 
0 0 0 
0 0 0 
0 0 0 
0 0 0 
0 0 0 
0 0 0 
0 0 0 
0 0 0 
0 0 0 
0 0 0 
0 0 0 
0 0 0 
0 0 0 
0 0 0 
0 0 0 
0 0 0 
0 0 0 
0 0 0 
0 0 0 
0 0 0 
0 0 0 
0 0 0 
0 0 0 
0 0 0 
0 0 0 
0 0 0 
0 0 0 
0 0 0 
0 0 0 
0 0 0 
0 0 0 
0 0 0 
0 0 0 
0 0 0 
0 0 0 
0 0 0 
0 0 0 
0 0 0 
0 0 0 
0 0 0 
0 0 0 
0 0 0 
0 0 0 
0 0 0 
0 0 0 
0 0 0 
0 0 0 
0 0 0 
0 0 0 
0 0 0 
0 0 0 
0 0 0 
0 0 0 
0 0 0 
0 0 0 
0 0 0 
0 0 0 
0 0 0 
0 0 0 
0 0 0 
0 0 0 
0 0 0 
0 0 0 
0 0 0 
0 0 0 
0 0 0 
0 0 0 
0 0 0 
0 0 0 
0 0 0 
0 0 0 
0 0 0 
0 0 0 
0 0 0 
0 0 0 
0 0 0 
0 0 0 
0 0 0 
0 0 0 
0 0 0 
0 0 0 
0 0 0 
0 0 0 
0 0 0 
0 0 0 
0 0 0 
0 0 0 
0 0 0 
0 0 0 
0 0 0 
0 0 0 
0 -0 0 
0 -0 0 
0 -0 0 
0 -0 0 
0 -0 0 
0 -0 0 
0 -0 0 
0 -0 0 
0 -0 0 
0 -0 0 
0 -0 0 
0 -0 0 
0 -0 0 
0 -0 0 
0 -0 0 
0 -0 0 
0 -0 0 
0 -0 0 
0 -0 0 
0 -0 0 
0 -0 0 
0 0 0 
0 -0 0 
0 -0 0 
0 -0 0 
0 -0 0 
0 -0 0 
0 -0 0 
0 -0 0 
0 -0 0 
0 -0 0 
0 -0 0 
0 -0 0 
0 -0 0 
0 -0 0 
0 -0 0 
0 -0 0 
0 -0 0 
0 -0 0 
0 -0 0 
0 -0 0 
0 -0 0 
0 -0 0 
0 -0 0 
0 -0 0 
0 -0 0 
0 -0 0 
0 -0 0 
0 -0 0 
0 -0 0 
0 -0 0 
0 -0 0 
0 -0 0 
0 -0 0 
0 -0 0 
0 -0 0 
0 -0 0 
0 -0 0 
0 -0 0 
0 -0 0 
0 -0 0 
0 -0 0 
0 -0 0 
0 -0 0 
0 -0 0 
0 -0 0 
0 -0 0 
0 -0 0 
0 -0 0 
0 -0 0 
0 -0 0 
0 -0 0 
0 -0 0 
0 -0 0 
0 -0 0 
0 -0 0 
0 -0 0 
0 -0 0 
0 -0 0 
0 -0 0 
0 -0 0 
0 -0 0 
0 -0 0 
0 -0 0 
0 0 0 
0 0 0 
0 0 0 
0 0 0 
0 -0 0 
0 -0 0 
0 -0 0 
0 -0 0 
0 -0 0 
0 -0 0 
0 -0 0 
0 -0 0 
0 0 0 
0 0 0 
0 0 0 
0 -0 0 
0 -0 0 
0 -0 0 
0 -0 0 
0 -0 0 
0 -0 0 
0 -0 0 
0 -0 0 
0 -0 0 
0 -0 0 
0 -0 0 
0 -0 0 
0 -0 0 
0 -0 0 
0 -0 0 
0 -0 0 
0.96239704 -0.27163988 -0.0019626885 
0.9637381 -0.26684594 -0.0014692451 
0.9650587 -0.26203105 -0.0012809096 
0.96683836 -0.25538674 -0.0010742458 
0.96871114 -0.24819046 -0.0005546771 
0.97033787 -0.24175313 -0.0001968954 
0.9717325 -0.23608461 -7.3568226e-05 
0.9732046 -0.22994113 4.3949316e-05 
0.97475874 -0.22326092 0.0002826182 
0.9761969 -0.21688563 0.0004498375 
0.97743726 -0.21122563 0.00043218865 
0.97854096 -0.20605256 0.00027769283 
0.9796498 -0.20071481 0.00012671968 
0.98080105 -0.19501124 6.204952e-05 
0.98192775 -0.18925643 2.4731191e-05 
0.982986 -0.18368058 -4.245331e-05 
0.9839951 -0.17819612 -0.00013073145 
0.9850032 -0.17253612 -0.00019037983 
0.9860225 -0.16661285 -0.00019548867 
0.98702335 -0.16057721 -0.00017482885 
0.987977 -0.15460071 -0.00016722674 
0.9888795 -0.14871873 -0.00018402288 
0.9897485 -0.14282112 -0.00020472164 
0.9906046 -0.13675776 -0.0001985765 
0.99144953 -0.13049054 -0.00015458505 
0.99226695 -0.124122895 -9.2994895e-05 
0.993036 -0.1178117 -4.859533e-05 
0.9937447 -0.11167649 -4.98834e-05 
0.99439245 -0.10575351 -0.000106891544 
0.99498874 -0.09998734 -0.0002085313 
0.99554896 -0.09424606 -0.00032619233 
0.9960884 -0.08836142 -0.00042303486 
0.9966162 -0.08219444 -0.00046750653 
0.9971307 -0.0756988 -0.00044611449 
0.9976216 -0.06892874 -0.0003672999 
0.9980764 -0.06199558 -0.00025358316 
0.9984855 -0.055017255 -0.00013048793 
0.9988432 -0.048087854 -1.898207e-05 
0.9991481 -0.04126852 6.734192e-05 
0.99940157 -0.03458989 0.00012204111 
0.9996064 -0.02805877 0.00014422994 
0.99976534 -0.021664988 0.00013680023 
0.9998816 -0.015386965 0.0001049298 
0.9999578 -0.009195893 5.498886e-05 
0.99999535 -0.0030585416 -5.9893955e-06 
0.9999954 0.0030606596 -7.067954e-05 
0.99995774 0.009198012 -0.00013167594 
0.99988157 0.015389088 -0.00018165266 
0.9997652 0.021667115 -0.00021357526 
0.9996062 0.028060904 -0.00022107137 
0.9994015 0.034592036 -0.00019896006 
0.9991481 0.04127069 -0.00014434462 
0.998843 0.048090037 -5.8104815e-05 
0.9984853 0.055019464 5.3322226e-05 
0.99807626 0.06199783 0.00017635118 
0.9976214 0.06893103 0.00029001985 
0.9971306 0.07570115 0.00036880508 
0.99661607 0.08219684 0.00039017946 
0.9960882 0.08836387 0.00034568712 
0.99554867 0.094248556 0.00024880207 
0.9949885 0.09998991 0.00013106369 
0.9943921 0.10575614 2.9309898e-05 
0.9937444 0.111679204 -2.7840168e-05 
0.9930356 0.11781448 -2.928307e-05 
0.9922665 0.12412574 1.49645375e-05 
0.99144924 0.13049349 7.6417746e-05 
0.99060416 0.1367608 0.000120287616 
0.98974806 0.14282426 0.00012631266 
0.98887914 0.14872198 0.000105473715 
0.9879766 0.15460406 8.850986e-05 
0.98702276 0.16058066 9.592907e-05 
0.9860219 0.16661642 0.00011641144 
0.9850025 0.17253983 0.000111140434 
0.9839943 0.17819995 5.1327388e-05 
0.9829853 0.18368457 -3.715581e-05 
0.9819269 0.18926054 -0.00010458471 
0.98080015 0.19501549 -0.0001421524 
0.9796489 0.20071922 -0.00020704507 
0.97853994 0.20605709 -0.000358237 
0.97743624 0.21123034 -0.00051304844 
0.9761959 0.21689051 -0.0005310961 
0.97475755 0.22326598 -0.0003642742 
0.9732033 0.22994633 -0.00012590132 
0.9717313 0.23608999 -8.565566e-06 
0.97033644 0.24175863 0.00011438937 
0.9687097 0.24819615 0.000471713 
0.966837 0.2553926 0.0009909844 
0.96505713 0.26203695 0.0011978484 
0.9637366 0.26685196 0.0013857965 
0.9623954 0.27164608 0.001878707 
0 0 0 
0 0 0 
0 0 0 
0 0 0 
0 0 0 
0 0 0 
0 0 0 
0 0 0 
0 0 0 
0 0 0 
0 0 0 
0 0 0 
0 0 0 
0 0 0 
0 0 0 
0 0 0 
0 0 0 
0 0 0 
0 0 0 
0 0 0 
0 0 0 
0 0 0 
0 0 0 
0 0 0 
0 0 0 
0 0 0 
0 0 0 
0 0 0 
0 0 0 
0 0 0 
0 0 0 
0 0 0 
0 0 0 
0 0 0 
0 0 0 
0 0 0 
0 0 0 
0 0 0 
0 0 0 
0 0 0 
0 0 0 
0 0 0 
0 0 0 
0 0 0 
0 0 0 
0 0 0 
0 0 0 
0 0 0 
0 0 0 
0 0 0 
0 0 0 
0 0 0 
0 0 0 
0 0 0 
0 0 0 
0 0 0 
0 0 0 
0 0 0 